 Gaussian 16, Revision C.01,
 Gaussian 16:  EM64L-G16RevC.01  3-Jul-2019

 ----------------------------
 #upbepbe/6-31g(d,p) OPT FREQ
 ----------------------------

 ---------------------------
 created with so and so tool
 ---------------------------
 Symbolic Z-matrix:
 Charge =  0 Multiplicity = 2

 SCF Done:  E(UPBE-PBE) =  -75.6184724545     A.U. after   10 cycles
 SCF Done:  E(UPBE-PBE) =  -75.6413392895     A.U. after   11 cycles
 SCF Done:  E(UPBE-PBE) =  -75.6418201149     A.U. after   10 cycles
 SCF Done:  E(UPBE-PBE) =  -75.6418217520     A.U. after    7 cycles
 Optimization completed.
    -- Stationary point found.
 Normal termination of Gaussian 16 at Sat Oct  5 18:31:18 2024.

 ----------------------------------------------------------------------
 #N Geom=AllCheck Guess=TCheck SCRF=Check GenChk UPBEPBE/6-31G(d,p) Fre
 q
 ----------------------------------------------------------------------

 Structure from the checkpoint file:  "/gpfs/home/gdb20/code/input_macros/temp/oh_radical_pbepbe_6-311++Gdp/oh_radical_pbepbe_6-311++Gdp.chk"
 ---------------------------
 created with so and so tool
 ---------------------------
 Charge =  0 Multiplicity = 2

                         Standard orientation:
 ---------------------------------------------------------------------
 Center     Atomic      Atomic             Coordinates (Angstroms)
 Number     Number       Type             X           Y           Z
 ---------------------------------------------------------------------
      1          8           0        0.000000   -0.000000    0.109783
      2          1           0        0.000000    0.000000   -0.878267
 ---------------------------------------------------------------------

 SCF Done:  E(UPBE-PBE) =  -75.6418217520     A.U. after    1 cycles

 Unable to determine electronic state:  partially filled degenerate orbitals.
 Alpha  occ. eigenvalues --  -18.83115  -0.90809  -0.40358  -0.33831  -0.26135
 Alpha virt. eigenvalues --    0.04698   0.68223   0.76871   0.79862   0.81901
 Alpha virt. eigenvalues --    1.02129   1.45416   1.49230   1.68413   1.68421
 Alpha virt. eigenvalues --    2.21189   2.50499   2.53139   3.20429   3.38589
  Beta  occ. eigenvalues --  -18.80843  -0.85061  -0.38013  -0.23714
  Beta virt. eigenvalues --   -0.20732   0.05618   0.69092   0.81856   0.83549
  Beta virt. eigenvalues --    0.86082   1.04747   1.49695   1.50027   1.74867
  Beta virt. eigenvalues --    1.76318   2.23479   2.53199   2.53533   3.23607

 Mulliken charges and spin densities:
               1          2
     1  O   -0.317561   1.027769
     2  H    0.317561  -0.027769
 Sum of Mulliken charges =  -0.00000   1.00000

 Dipole moment (field-independent basis, Debye):
    X=             -0.0000    Y=              0.0000    Z=             -1.6895  Tot=              1.6895
 Quadrupole moment (field-independent basis, Debye-Ang):
   XX=             -5.2947   YY=             -6.4217   ZZ=             -4.4954
   XY=              0.0000   XZ=              0.0000   YZ=             -0.0000

  Exact polarizability:       2.890      -0.000       2.571       0.000       0.000       6.596
 Approx polarizability:       3.936      -0.000       2.962       0.000      -0.000       9.630

                      1
                     SG
 Frequencies --   3596.1049
 Red. masses --      1.0671
 Frc consts  --      8.1305
 IR Inten    --      0.7356

 - Thermochemistry -
 -------------------
 Temperature   298.150 Kelvin.  Pressure   1.00000 Atm.
 Atom     1 has atomic number  8 and mass  15.99491

 Molecular mass:    17.00274 amu.
 Principal axes and moments of inertia in atomic units:
                           1         2         3
     Eigenvalues --     0.00000   3.30525   3.30525
           X            0.00000   0.99991  -0.01371
           Y           -0.00000   0.01371   0.99991
           Z            1.00000   0.00000   0.00000
 This molecule is a prolate symmetric top.
 Rotational symmetry number  1.
 Rotational temperature (Kelvin)     26.20496
 Rotational constant (GHZ):         546.022707
 Zero-point vibrational energy      21509.5 (Joules/Mol)
                                    5.14089 (Kcal/Mol)
 Vibrational temperatures:   5173.99
          (Kelvin)

 Zero-point correction=                           0.008193 (Hartree/Particle)
 Thermal correction to Energy=                    0.010553
 Thermal correction to Enthalpy=                  0.011497
 Thermal correction to Gibbs Free Energy=        -0.008759
 Sum of electronic and zero-point Energies=            -75.633629
 Sum of electronic and thermal Energies=               -75.631269
 Sum of electronic and thermal Enthalpies=             -75.630325
 Sum of electronic and thermal Free Energies=          -75.650581

                     E (Thermal)             CV                S
                      KCal/Mol        Cal/Mol-Kelvin    Cal/Mol-Kelvin
 Total                    6.622              4.968             42.633
 Electronic               0.000              0.000              1.377
 Translational            0.889              2.981             34.437
 Rotational               0.592              1.987              6.819
 Vibrational              5.141              0.000              0.000

 Optimization completed.
    -- Stationary point found.
 Normal termination of Gaussian 16 at Sat Oct  5 18:31:24 2024.
