 Gaussian 16, Revision C.01,
 Gaussian 16:  EM64L-G16RevC.01  3-Jul-2019

 ----------------------------
 #upbepbe/6-31g(d,p) OPT FREQ
 ----------------------------

 ---------------------------
 created with so and so tool
 ---------------------------
 Symbolic Z-matrix:
 Charge =  0 Multiplicity = 1

 SCF Done:  E(UPBE-PBE) =  -151.229435563     A.U. after   16 cycles
 SCF Done:  E(UPBE-PBE) =  -151.285226483     A.U. after   13 cycles
 SCF Done:  E(UPBE-PBE) =  -151.371096611     A.U. after   12 cycles
 SCF Done:  E(UPBE-PBE) =  -151.380260415     A.U. after   12 cycles
 SCF Done:  E(UPBE-PBE) =  -151.385890278     A.U. after   12 cycles
 SCF Done:  E(UPBE-PBE) =  -151.387947247     A.U. after   11 cycles
 SCF Done:  E(UPBE-PBE) =  -151.388137369     A.U. after   11 cycles
 SCF Done:  E(UPBE-PBE) =  -151.388136682     A.U. after    8 cycles
 SCF Done:  E(UPBE-PBE) =  -151.388143443     A.U. after    7 cycles
 Optimization completed.
    -- Stationary point found.
 Normal termination of Gaussian 16 at Sat Oct  5 18:31:14 2024.

 ----------------------------------------------------------------------
 #N Geom=AllCheck Guess=TCheck SCRF=Check GenChk UPBEPBE/6-31G(d,p) Fre
 q
 ----------------------------------------------------------------------

 Structure from the checkpoint file:  "/gpfs/home/gdb20/code/input_macros/temp/h2o2_pbepbe_6-31++Gdp/h2o2_pbepbe_6-31++Gdp.chk"
 ---------------------------
 created with so and so tool
 ---------------------------
 Charge =  0 Multiplicity = 1

                         Standard orientation:
 ---------------------------------------------------------------------
 Center     Atomic      Atomic             Coordinates (Angstroms)
 Number     Number       Type             X           Y           Z
 ---------------------------------------------------------------------
      1          8           0        0.000003    0.740689   -0.000000
      2          8           0        0.000003   -0.740707    0.000000
      3          1           0        0.970077    0.866250   -0.000000
      4          1           0       -0.970124   -0.866109    0.000000
 ---------------------------------------------------------------------

 SCF Done:  E(UPBE-PBE) =  -151.388143443     A.U. after    1 cycles

 The electronic state is 1-A'.
 Alpha  occ. eigenvalues --  -18.81836 -18.81834  -1.00407  -0.80811  -0.44798
 Alpha  occ. eigenvalues --   -0.43773  -0.31791  -0.30717  -0.18383
 Alpha virt. eigenvalues --   -0.02931   0.04536   0.09082   0.69672   0.70146
 Alpha virt. eigenvalues --    0.76276   0.79975   0.84331   0.91445   0.92547
 Alpha virt. eigenvalues --    0.97125   1.10352   1.24495   1.43459   1.43523

  Beta  occ. eigenvalues --  -18.81836 -18.81834  -1.00407  -0.80811  -0.44798
  Beta  occ. eigenvalues --   -0.43773  -0.31791  -0.30717  -0.18383
  Beta virt. eigenvalues --   -0.02931   0.04536   0.09082   0.69672   0.70146
  Beta virt. eigenvalues --    0.76276   0.79975   0.84331   0.91445   0.92547
  Beta virt. eigenvalues --    0.97125   1.10352   1.24495   1.43459   1.43523

 Mulliken charges and spin densities:
               1          2
     1  O   -0.338085   0.000000
     2  O   -0.338067   0.000000
     3  H    0.338073   0.000000
     4  H    0.338080   0.000000
 Sum of Mulliken charges =  -0.00000   0.00000

 Dipole moment (field-independent basis, Debye):
    X=             -0.0000    Y=              0.0002    Z=             -0.0000  Tot=              0.0002
 Quadrupole moment (field-independent basis, Debye-Ang):
   XX=             -7.9573   YY=            -11.1584   ZZ=            -12.5565
   XY=              3.3445   XZ=              0.0000   YZ=             -0.0000

  Exact polarizability:      11.538       2.379      13.894       0.000       0.000       4.865
 Approx polarizability:      17.414       2.451      27.267       0.000       0.000       6.163

 ******    1 imaginary frequencies (negative Signs) ******

                      1                      2                      3
                     A"                     A'                     A'
 Frequencies --   -258.3991               917.2279              1206.6704
 Red. masses --      1.0671                15.3572                 1.0671
 Frc consts  --      0.0420                 7.6123                 0.9154
 IR Inten    --    276.7362                 0.0000               135.4232

                      4                      5                      6
                     A'                     A'                     A'
 Frequencies --   1495.5213              3682.0849              3692.0915
 Red. masses --      1.1165                 1.0695                 1.0671
 Frc consts  --      1.4713                 8.5433                 8.5703
 IR Inten    --      0.0000                 0.0220                49.8228

 - Thermochemistry -
 -------------------
 Temperature   298.150 Kelvin.  Pressure   1.00000 Atm.
 Atom     1 has atomic number  8 and mass  15.99491

 Molecular mass:    34.00548 amu.
 Principal axes and moments of inertia in atomic units:
                           1         2         3
     Eigenvalues --     6.18295  68.66617  74.84912
           X            0.09726   0.99526   0.00000
           Y            0.99526  -0.09726   0.00000
           Z           -0.00000  -0.00000   1.00000
 This molecule is an asymmetric top.
 Rotational symmetry number  1.
 Rotational temperatures (Kelvin)     14.00851     1.26138     1.15718
 Rotational constants (GHZ):         291.89007    26.28283    24.11172
    1 imaginary frequencies ignored.
 Zero-point vibrational energy      65756.3 (Joules/Mol)
                                   15.71613 (Kcal/Mol)
 Vibrational temperatures:   1319.69  1736.13  2151.72  5297.70  5312.10
          (Kelvin)

 Zero-point correction=                           0.025045 (Hartree/Particle)
 Thermal correction to Energy=                    0.027950
 Thermal correction to Enthalpy=                  0.028894
 Thermal correction to Gibbs Free Energy=         0.002862
 Sum of electronic and zero-point Energies=           -151.363098
 Sum of electronic and thermal Energies=              -151.360194
 Sum of electronic and thermal Enthalpies=            -151.359250
 Sum of electronic and thermal Free Energies=         -151.385281

                     E (Thermal)             CV                S
                      KCal/Mol        Cal/Mol-Kelvin    Cal/Mol-Kelvin
 Total                   17.539              6.715             54.788
 Electronic               0.000              0.000              0.000
 Translational            0.889              2.981             36.503
 Rotational               0.889              2.981             18.103
 Vibrational             15.761              0.754              0.183

 Optimization completed.
    -- Stationary point found.
 Normal termination of Gaussian 16 at Sat Oct  5 18:31:35 2024.
