   * xtb version 6.6.1 (8d0f1dd) compiled by 'conda@1efc2f54142f' on 2023-08-01
          program call               : /gpfs/home/gdb20/.conda/envs/crest3/bin/xtb boss-dirad.xyz -P 4 --gfn2 --opt

   ID    Z sym.   atoms
    1    6 C      1-9, 11-14, 19-25, 31-36, 42-45, 50-61, 66-71, 77-80
    2    1 H      10, 15-18, 26-30, 37-41, 46-49, 62-65, 72-76, 81-84

          :  Hamiltonian                  GFN2-xTB          :
 * total energy  :  -126.8825158 Eh     change       -0.8497238E-09 Eh
 * total energy  :  -127.2601768 Eh     change       -0.3776609E+00 Eh
 * total energy  :  -127.4148867 Eh     change       -0.1547099E+00 Eh
 * total energy  :  -127.4931499 Eh     change       -0.7826321E-01 Eh
 * total energy  :  -127.5376057 Eh     change       -0.4445580E-01 Eh
 * total energy  :  -127.5667612 Eh     change       -0.2915548E-01 Eh
 * total energy  :  -127.5864337 Eh     change       -0.1967252E-01 Eh
 * total energy  :  -127.5995050 Eh     change       -0.1307129E-01 Eh
 * total energy  :  -127.6075791 Eh     change       -0.8074167E-02 Eh
 * total energy  :  -127.6123389 Eh     change       -0.4759726E-02 Eh
 * total energy  :  -127.6399808 Eh     change       -0.3374371E-04 Eh
 * total energy  :  -127.6400131 Eh     change       -0.3231418E-04 Eh
 * total energy  :  -127.6400305 Eh     change       -0.1731927E-04 Eh
 * total energy  :  -127.6400431 Eh     change       -0.1264266E-04 Eh
 * total energy  :  -127.6400523 Eh     change       -0.9179253E-05 Eh
 * total energy  :  -127.6400586 Eh     change       -0.6318997E-05 Eh
 * total energy  :  -127.6400610 Eh     change       -0.2408886E-05 Eh
 * total energy  :  -127.6400674 Eh     change       -0.6431475E-05 Eh
 * total energy  :  -127.6400707 Eh     change       -0.3233042E-05 Eh
   *** GEOMETRY OPTIMIZATION CONVERGED AFTER 69 ITERATIONS ***

 final structure:
================
84
 xtb: 6.6.1 (8d0f1dd)
C            0.11362595660595       -0.49207856441032        0.13495721625828
C           -2.04735054285185       -0.62190048573564       -1.06427964961752
C           -1.37606252960999       -0.88168838116575       -2.27441535444618
C            0.06560221688803       -1.01539543965925       -2.24566539505398
C            0.69882708374557       -1.12261679357067       -0.96835641781666
C            2.20556839691421       -1.50042096781316       -3.36980737449355
C            0.84435591888656       -1.10140883422832       -3.37207246914057
C            1.94568304904980       -1.85569595188103       -0.94023563047586
C            2.73519950575823       -1.98922389679778       -2.10525737581169
H            0.39307541174059       -0.91008780873411       -4.33364373384955
C            4.01538840425364       -2.54128365998660       -1.95994867403128
C            4.42502364028822       -3.10555579946903       -0.77454667733634
C            3.55757200649996       -3.15144415075104        0.31321124828457
C            2.34603065566496       -2.51125571537284        0.23417153068538
H            4.69916747901907       -2.53211722819442       -2.79147272433044
H            5.41366299635448       -3.53334008536435       -0.69835532279149
H            3.84567060783035       -3.66253233752670        1.21945633343049
H            1.68212076500857       -2.50590835942390        1.08521826123015
C            2.88603980321499       -1.49156031405740       -4.58782964050822
C            2.06927972128158        0.72868346196089       -5.35131804876298
C            1.71450367945259        1.60366746088929       -6.35790038682648
C            1.75270953064217        1.19826339835471       -7.68298412613487
C            2.15661329617099       -0.09093440152918       -7.99329206975956
C            2.51920201273919       -0.96832620244656       -6.99122788488598
C            2.47455408940664       -0.57847089695513       -5.64799044740834
H            2.05905790726632        1.05722685165979       -4.32200827066898
H            1.41077666650414        2.61011872215045       -6.10933000389650
H            1.47268164028600        1.88369382061799       -8.46889500847635
H            2.18628554105416       -0.41375614651873       -9.02381189859429
H            2.81812611704943       -1.97633666380504       -7.24025837840656
C            3.81331753410799       -3.78586004876584       -4.75173898004210
C            4.78510716880818       -4.66653274699402       -5.18099875213235
C            5.92505776934895       -4.19555267884871       -5.81512967459603
C            6.08135716592757       -2.83547243579468       -6.02715554732788
C            5.10486719371946       -1.94981947528751       -5.61282257148882
C            3.96302549423295       -2.40990261086874       -4.95411656122051
H            2.92294318603026       -4.15112470878648       -4.26041741593387
H            4.65340182354291       -5.72714843372570       -5.02441117932629
H            6.68596673134852       -4.88670787153054       -6.14559322229283
H            6.96674424260988       -2.46372208940444       -6.52200874952772
H            5.22760855499565       -0.88886106145651       -5.77789038513655
C           -2.12464911472573       -1.18599683510374       -3.41473734622925
C           -3.49415670553469       -1.31745090914580       -3.34791949760632
C           -4.13740936750052       -1.21266540489208       -2.12098136456604
C           -3.41967129224020       -0.87455664640071       -0.99459202542588
H           -1.62419346186955       -1.36569048758626       -4.35389681603386
H           -4.05818176249702       -1.55487170365376       -4.23795845978825
H           -5.19815261702679       -1.40124302753481       -2.04734431724796
H           -3.91795406600804       -0.83073478282105       -0.03955889008250
C           -1.28349580276962       -0.17279077439674        0.08883292782361
C            0.89459192576228       -0.04028006675849        1.27562493099569
C            0.24790455441552        0.32478004230647        2.47830984123648
C           -1.17510639918645        0.50301699828833        2.44780294707132
C           -1.85885774004518        0.46142933168168        1.17696872374086
C           -3.28932689885436        1.31024030426644        2.78018502628460
C           -3.15716922266349        1.08099870577731        1.38699652168053
C           -2.06006495854292        0.91857619061253        3.43150094539560
C           -4.44850444135678        1.86644782559051        3.29914940630093
C           -5.43633904274487        2.28410695912948        2.42182789771129
C           -5.25845696408076        2.16901294963260        1.05022759437296
C           -4.12446254548179        1.56734362183147        0.52317771619085
H           -4.57373585672050        1.98701949143622        4.36528057575076
H           -6.34320491661400        2.72710277223173        2.80753363748313
H           -6.01715416990905        2.54677300108856        0.38030324679542
H           -4.00389644691110        1.49431016226150       -0.54761187600164
C           -2.16840528986014        2.12517487990075        5.59154696323239
C           -2.03095121982115        2.15336446811380        6.96678656120357
C           -1.61776570443683        1.02260604022686        7.65090132310148
C           -1.33226783289494       -0.13811727297998        6.95000691143139
C           -1.45919255606064       -0.17010588888091        5.57515133919872
C           -1.88057807617341        0.96285098421321        4.87575464256984
H           -2.46896514118637        3.01467538716482        5.05733694293625
H           -2.24754195017310        3.06319912052824        7.50824339718717
H           -1.51629910251750        1.04595178627505        8.72597610025380
H           -1.00967260373760       -1.02258993764160        7.47980812312208
H           -1.23996929452046       -1.07548802291471        5.02704893039647
C            1.02250561160378        0.68687272652483        3.58753060050755
C            2.39322464706727        0.75556145895156        3.50464329432049
C            3.02071784483673        0.53459229683080        2.28313054761763
C            2.27922603098663        0.15859649983843        1.18795224451740
H            0.53010392506790        0.95443375337333        4.50836218756016
H            2.97449114464142        1.03245060104304        4.37188899685868
H            4.08767371300904        0.67240723165110        2.18808797167563
H            2.77662527553824        0.03930170117415        0.23831098912629

          :  Hamiltonian                  GFN2-xTB          :
         :: total energy            -127.640070667907 Eh    ::
         :: gradient norm              0.000806701675 Eh/a0 ::
         :: HOMO-LUMO gap              0.645042669933 eV    ::
         :: SCC energy              -130.154070272082 Eh    ::
         :: -> dispersion             -0.131970650763 Eh    ::
         :: repulsion energy           2.513201946742 Eh    ::

    * Orbital Energies and Occupations

         #    Occupation            Energy/Eh            Energy/eV
      -------------------------------------------------------------
         1        2.0000           -0.6572998             -17.8860
       ...           ...                  ...                  ...
       108        2.0000           -0.4081829             -11.1072
       109        2.0000           -0.4051595             -11.0250
       110        2.0000           -0.4032533             -10.9731
       111        2.0000           -0.4020565             -10.9405
       112        2.0000           -0.3996887             -10.8761
       113        2.0000           -0.3989453             -10.8559
       114        2.0000           -0.3981943             -10.8354
       115        2.0000           -0.3893050             -10.5935
       116        2.0000           -0.3865224             -10.5178
       117        2.0000           -0.3754818             -10.2174
       118        2.0000           -0.3741595             -10.1814
       119        2.0000           -0.3580949              -9.7443
       120        2.0000           -0.3355202              -9.1300 (HOMO)
       121        0.0000           -0.3118153              -8.4849 (LUMO)
       122                         -0.2648786              -7.2077
       123                         -0.2542360              -6.9181
       124                         -0.2414263              -6.5695
       125                         -0.2397869              -6.5249
       126                         -0.2338962              -6.3646
       127                         -0.2301753              -6.2634
       128                         -0.2258826              -6.1466
       129                         -0.2175155              -5.9189
       130                         -0.2172315              -5.9112
       131                         -0.2118845              -5.7657
       ...                                ...                  ...
       240                          0.7595856              20.6694
      -------------------------------------------------------------
                  HL-Gap            0.0237049 Eh            0.6450 eV

     #   Z          covCN         q      C6AA      α(0)
     1   6 C        2.978    -0.002    28.067     8.690
     2   6 C        2.984     0.007    27.852     8.657
     3   6 C        2.985     0.004    27.919     8.667
     4   6 C        2.978     0.004    27.922     8.668
     5   6 C        2.986     0.004    27.923     8.668
     6   6 C        2.963     0.004    27.928     8.668
     7   6 C        2.930    -0.041    29.013     8.833
     8   6 C        2.986     0.010    27.785     8.647
     9   6 C        2.979     0.006    27.892     8.663
    10   1 H        0.926     0.036     2.505     2.475
    11   6 C        2.922    -0.038    28.954     8.824
    12   6 C        2.918    -0.031    28.776     8.797
    13   6 C        2.916    -0.030    28.757     8.794
    14   6 C        2.924    -0.031    28.762     8.795
    15   1 H        0.926     0.036     2.502     2.473
    16   1 H        0.926     0.029     2.601     2.522
    17   1 H        0.926     0.031     2.578     2.511
    18   1 H        0.926     0.035     2.518     2.482
    19   6 C        2.975    -0.005    28.137     8.701
    20   6 C        2.924    -0.030    28.760     8.795
    21   6 C        2.917    -0.029    28.719     8.788
    22   6 C        2.920    -0.029    28.723     8.789
    23   6 C        2.917    -0.029    28.718     8.788
    24   6 C        2.924    -0.032    28.790     8.799
    25   6 C        2.979     0.014    27.684     8.631
    26   1 H        0.926     0.034     2.525     2.485
    27   1 H        0.926     0.033     2.550     2.497
    28   1 H        0.926     0.032     2.559     2.501
    29   1 H        0.926     0.031     2.568     2.506
    30   1 H        0.926     0.030     2.581     2.513
    31   6 C        2.924    -0.029    28.736     8.791
    32   6 C        2.918    -0.029    28.716     8.788
    33   6 C        2.920    -0.030    28.749     8.793
    34   6 C        2.917    -0.029    28.721     8.788
    35   6 C        2.923    -0.032    28.796     8.800
    36   6 C        2.977     0.018    27.599     8.617
    37   1 H        0.926     0.032     2.565     2.504
    38   1 H        0.926     0.032     2.557     2.500
    39   1 H        0.926     0.031     2.566     2.505
    40   1 H        0.926     0.031     2.568     2.506
    41   1 H        0.926     0.030     2.585     2.514
    42   6 C        2.922    -0.036    28.889     8.814
    43   6 C        2.918    -0.030    28.754     8.793
    44   6 C        2.918    -0.032    28.796     8.800
    45   6 C        2.922    -0.032    28.799     8.800
    46   1 H        0.926     0.030     2.580     2.512
    47   1 H        0.926     0.029     2.594     2.518
    48   1 H        0.926     0.030     2.579     2.511
    49   1 H        0.926     0.043     2.414     2.430
    50   6 C        2.972     0.007    27.856     8.657
    51   6 C        2.982     0.003    27.956     8.673
    52   6 C        2.979     0.008    27.830     8.653
    53   6 C        3.069    -0.016    28.345     8.730
    54   6 C        3.059    -0.008    28.169     8.704
    55   6 C        3.086    -0.004    28.035     8.680
    56   6 C        3.053    -0.007    28.137     8.699
    57   6 C        3.043    -0.011    28.238     8.716
    58   6 C        2.912    -0.034    28.859     8.809
    59   6 C        2.920    -0.034    28.845     8.807
    60   6 C        2.920    -0.036    28.905     8.816
    61   6 C        2.913    -0.032    28.797     8.800
    62   1 H        0.926     0.028     2.622     2.532
    63   1 H        0.926     0.024     2.670     2.555
    64   1 H        0.926     0.024     2.673     2.557
    65   1 H        0.926     0.028     2.615     2.529
    66   6 C        2.925    -0.034    28.836     8.806
    67   6 C        2.918    -0.030    28.751     8.793
    68   6 C        2.920    -0.032    28.803     8.801
    69   6 C        2.918    -0.030    28.748     8.792
    70   6 C        2.924    -0.032    28.792     8.799
    71   6 C        2.971     0.018    27.603     8.618
    72   1 H        0.926     0.032     2.563     2.503
    73   1 H        0.926     0.027     2.629     2.536
    74   1 H        0.926     0.027     2.636     2.539
    75   1 H        0.926     0.027     2.624     2.533
    76   1 H        0.926     0.030     2.589     2.516
    77   6 C        2.922    -0.039    28.981     8.828
    78   6 C        2.917    -0.031    28.768     8.795
    79   6 C        2.917    -0.035    28.867     8.811
    80   6 C        2.922    -0.034    28.850     8.808
    81   1 H        0.926     0.034     2.524     2.484
    82   1 H        0.926     0.026     2.640     2.541
    83   1 H        0.926     0.025     2.661     2.551
    84   1 H        0.926     0.028     2.613     2.528

Wiberg/Mayer (AO) data.
largest (>0.10) Wiberg bond orders for each atom

     #   Z sym  total        # sym  WBO       # sym  WBO       # sym  WBO
 ---------------------------------------------------------------------------
     1   6 C    3.919 --     5 C    1.374    50 C    1.208    51 C    1.123
     2   6 C    3.978 --    45 C    1.362     3 C    1.308    50 C    1.106
     3   6 C    3.977 --    42 C    1.359     2 C    1.308     4 C    1.111
     4   6 C    3.970 --     7 C    1.479     5 C    1.184     3 C    1.111
     5   6 C    3.920 --     1 C    1.374     4 C    1.184     8 C    1.133
     6   6 C    3.983 --    19 C    1.409     7 C    1.256     9 C    1.117
     7   6 C    3.896 --     4 C    1.479     6 C    1.256    10 H    0.956
     8   6 C    3.981 --    14 C    1.333     9 C    1.305     5 C    1.133
     9   6 C    3.968 --    11 C    1.347     8 C    1.305     6 C    1.117
    10   1 H    0.997 --     7 C    0.956
    11   6 C    3.986 --    12 C    1.492     9 C    1.347    15 H    0.959
                            14 C    0.106
    12   6 C    3.974 --    11 C    1.492    13 C    1.373    16 H    0.971
    13   6 C    3.984 --    14 C    1.498    12 C    1.373    17 H    0.970
    14   6 C    3.979 --    13 C    1.498     8 C    1.333    18 H    0.966
                            11 C    0.106
    15   1 H    0.998 --    11 C    0.959
    16   1 H    0.998 --    12 C    0.971
    17   1 H    0.998 --    13 C    0.970
    18   1 H    0.998 --    14 C    0.966
    19   6 C    3.788 --     6 C    1.409    25 C    1.102    36 C    1.074
    20   6 C    3.962 --    21 C    1.464    25 C    1.350    26 H    0.968
                            23 C    0.102
    21   6 C    3.991 --    20 C    1.464    22 C    1.425    27 H    0.970
                            24 C    0.102
    22   6 C    3.957 --    23 C    1.425    21 C    1.425    28 H    0.972
    23   6 C    3.991 --    24 C    1.464    22 C    1.425    29 H    0.970
                            20 C    0.102
    24   6 C    3.954 --    23 C    1.464    25 C    1.356    30 H    0.969
                            21 C    0.102
    25   6 C    3.987 --    24 C    1.356    20 C    1.350    19 C    1.102
    26   1 H    0.999 --    20 C    0.968
    27   1 H    0.998 --    21 C    0.970
    28   1 H    0.999 --    22 C    0.972
    29   1 H    0.998 --    23 C    0.970
    30   1 H    0.999 --    24 C    0.969
    31   6 C    3.970 --    32 C    1.464    36 C    1.356    37 H    0.970
                            34 C    0.106
    32   6 C    3.991 --    31 C    1.464    33 C    1.423    38 H    0.970
                            35 C    0.103
    33   6 C    3.970 --    34 C    1.433    32 C    1.423    39 H    0.972
                            36 C    0.101
    34   6 C    3.991 --    35 C    1.454    33 C    1.433    40 H    0.970
                            31 C    0.106
    35   6 C    3.965 --    34 C    1.454    36 C    1.371    41 H    0.970
                            32 C    0.103
    36   6 C    3.986 --    35 C    1.371    31 C    1.356    19 C    1.074
                            33 C    0.101
    37   1 H    0.999 --    31 C    0.970
    38   1 H    0.998 --    32 C    0.970
    39   1 H    0.999 --    33 C    0.972
    40   1 H    0.998 --    34 C    0.970
    41   1 H    0.999 --    35 C    0.970
    42   6 C    3.985 --    43 C    1.475     3 C    1.359    46 H    0.964
                            45 C    0.104
    43   6 C    3.981 --    42 C    1.475    44 C    1.395    47 H    0.971
    44   6 C    3.981 --    45 C    1.473    43 C    1.395    48 H    0.971
    45   6 C    3.987 --    44 C    1.473     2 C    1.362    49 H    0.963
                            42 C    0.104
    46   1 H    0.999 --    42 C    0.964
    47   1 H    0.998 --    43 C    0.971
    48   1 H    0.998 --    44 C    0.971
    49   1 H    0.998 --    45 C    0.963
    50   6 C    3.963 --    54 C    1.422     1 C    1.208     2 C    1.106
    51   6 C    3.973 --    80 C    1.347    52 C    1.294     1 C    1.123
    52   6 C    3.970 --    77 C    1.341    51 C    1.294    53 C    1.146
    53   6 C    3.979 --    57 C    1.431    54 C    1.157    52 C    1.146
    54   6 C    3.887 --    50 C    1.422    53 C    1.157    56 C    1.103
    55   6 C    3.968 --    58 C    1.386    56 C    1.254    57 C    1.125
    56   6 C    3.966 --    61 C    1.407    55 C    1.254    54 C    1.103
    57   6 C    3.822 --    53 C    1.431    55 C    1.125    71 C    1.069
    58   6 C    3.950 --    59 C    1.434    55 C    1.386    62 H    0.967
    59   6 C    3.956 --    58 C    1.434    60 C    1.425    63 H    0.972
    60   6 C    3.958 --    59 C    1.425    61 C    1.423    64 H    0.972
    61   6 C    3.965 --    60 C    1.423    56 C    1.407    65 H    0.965
    62   1 H    0.999 --    58 C    0.967
    63   1 H    0.999 --    59 C    0.972
    64   1 H    0.999 --    60 C    0.972
    65   1 H    0.999 --    61 C    0.965
    66   6 C    3.971 --    67 C    1.451    71 C    1.377    72 H    0.969
                            69 C    0.106
    67   6 C    3.991 --    66 C    1.451    68 C    1.435    73 H    0.971
                            70 C    0.107
    68   6 C    3.979 --    67 C    1.435    69 C    1.428    74 H    0.972
                            71 C    0.103
    69   6 C    3.991 --    70 C    1.458    68 C    1.428    75 H    0.971
                            66 C    0.106
    70   6 C    3.974 --    69 C    1.458    71 C    1.369    76 H    0.970
                            67 C    0.107
    71   6 C    3.987 --    66 C    1.377    70 C    1.369    57 C    1.069
                            68 C    0.103
    72   1 H    0.999 --    66 C    0.969
    73   1 H    0.998 --    67 C    0.971
    74   1 H    0.999 --    68 C    0.972
    75   1 H    0.998 --    69 C    0.971
    76   1 H    0.999 --    70 C    0.970
    77   6 C    3.980 --    78 C    1.488    52 C    1.341    81 H    0.962
                            80 C    0.104
    78   6 C    3.976 --    77 C    1.488    79 C    1.380    82 H    0.971
    79   6 C    3.978 --    80 C    1.487    78 C    1.380    83 H    0.971
    80   6 C    3.979 --    79 C    1.487    51 C    1.347    84 H    0.964
                            77 C    0.104
    81   1 H    0.998 --    77 C    0.962
    82   1 H    0.998 --    78 C    0.971
    83   1 H    0.999 --    79 C    0.971
    84   1 H    0.999 --    80 C    0.964
 ---------------------------------------------------------------------------

molecular dipole:
                 x           y           z       tot (Debye)
 q only:        0.604      -0.415      -1.001
   full:        0.620      -0.411      -1.054       3.278

           -------------------------------------------------
          | TOTAL ENERGY             -127.640070667907 Eh   |
          | GRADIENT NORM               0.000806701675 Eh/α |
          | HOMO-LUMO GAP               0.645042669933 eV   |
           -------------------------------------------------

 * finished run on 2024/09/24 at 23:59:30.586
