 Gaussian 16, Revision C.01,
 Gaussian 16:  EM64L-G16RevC.01  3-Jul-2019

 ---------------------------
 #um062x/6-31g(d,p) OPT FREQ
 ---------------------------

 ---------------------------
 created with so and so tool
 ---------------------------
 Symbolic Z-matrix:
 Charge =  0 Multiplicity = 2

 SCF Done:  E(UM062X) =  -75.6730447303     A.U. after   12 cycles
 SCF Done:  E(UM062X) =  -75.6933820948     A.U. after   14 cycles
 SCF Done:  E(UM062X) =  -75.6936335032     A.U. after    9 cycles
 SCF Done:  E(UM062X) =  -75.6936340469     A.U. after    7 cycles
 Optimization completed.
    -- Stationary point found.
 Normal termination of Gaussian 16 at Sat Oct  5 18:31:22 2024.

 ----------------------------------------------------------------------
 #N Geom=AllCheck Guess=TCheck SCRF=Check GenChk UM062X/6-31G(d,p) Freq
 ----------------------------------------------------------------------

 Structure from the checkpoint file:  "/gpfs/home/gdb20/code/input_macros/temp/oh_radical_m06-2x_6-31++Gdp/oh_radical_m06-2x_6-31++Gdp.chk"
 ---------------------------
 created with so and so tool
 ---------------------------
 Charge =  0 Multiplicity = 2

                         Standard orientation:
 ---------------------------------------------------------------------
 Center     Atomic      Atomic             Coordinates (Angstroms)
 Number     Number       Type             X           Y           Z
 ---------------------------------------------------------------------
      1          8           0       -0.000000    0.000000    0.108392
      2          1           0        0.000000    0.000000   -0.867139
 ---------------------------------------------------------------------

 SCF Done:  E(UM062X) =  -75.6936340469     A.U. after    1 cycles

 Unable to determine electronic state:  an orbital has unidentified symmetry.
 Alpha  occ. eigenvalues --  -19.69818  -1.12705  -0.54635  -0.48417  -0.41917
 Alpha virt. eigenvalues --    0.12602   0.80924   0.89991   0.90839   0.94695
 Alpha virt. eigenvalues --    1.12693   1.58023   1.60818   1.81905   1.82065
 Alpha virt. eigenvalues --    2.36918   2.62931   2.65017   3.33797   3.50552
  Beta  occ. eigenvalues --  -19.68190  -1.04539  -0.51465  -0.38408
  Beta virt. eigenvalues --   -0.07072   0.13496   0.81994   0.91440   0.95971
  Beta virt. eigenvalues --    0.97969   1.13822   1.62177   1.62248   1.86911
  Beta virt. eigenvalues --    1.88771   2.39212   2.64553   2.65438   3.36031

 Mulliken charges and spin densities:
               1          2
     1  O   -0.343118   1.030194
     2  H    0.343118  -0.030194
 Sum of Mulliken charges =   0.00000   1.00000

 Dipole moment (field-independent basis, Debye):
    X=             -0.0000    Y=              0.0000    Z=             -1.7902  Tot=              1.7902
 Quadrupole moment (field-independent basis, Debye-Ang):
   XX=             -5.2878   YY=             -6.4188   ZZ=             -4.4464
   XY=              0.0000   XZ=              0.0000   YZ=             -0.0000

  Exact polarizability:       2.941      -0.000       2.550       0.000      -0.000       6.182
 Approx polarizability:       2.918      -0.000       2.460       0.000      -0.000       6.392

                      1
                     SG
 Frequencies --   3779.3008
 Red. masses --      1.0671
 Frc consts  --      8.9800
 IR Inten    --      8.7252

 - Thermochemistry -
 -------------------
 Temperature   298.150 Kelvin.  Pressure   1.00000 Atm.
 Atom     1 has atomic number  8 and mass  15.99491

 Molecular mass:    17.00274 amu.
 Principal axes and moments of inertia in atomic units:
                           1         2         3
     Eigenvalues --     0.00000   3.22202   3.22202
           X            0.00000  -0.01023   0.99995
           Y           -0.00000   0.99995   0.01023
           Z            1.00000   0.00000   0.00000
 This molecule is a prolate symmetric top.
 Rotational symmetry number  1.
 Rotational temperature (Kelvin)     26.88185
 Rotational constant (GHZ):         560.126899
 Zero-point vibrational energy      22605.2 (Joules/Mol)
                                    5.40278 (Kcal/Mol)
 Vibrational temperatures:   5437.57
          (Kelvin)

 Zero-point correction=                           0.008610 (Hartree/Particle)
 Thermal correction to Energy=                    0.010970
 Thermal correction to Enthalpy=                  0.011915
 Thermal correction to Gibbs Free Energy=        -0.008318
 Sum of electronic and zero-point Energies=            -75.685024
 Sum of electronic and thermal Energies=               -75.682664
 Sum of electronic and thermal Enthalpies=             -75.681720
 Sum of electronic and thermal Free Energies=          -75.701952

                     E (Thermal)             CV                S
                      KCal/Mol        Cal/Mol-Kelvin    Cal/Mol-Kelvin
 Total                    6.884              4.968             42.583
 Electronic               0.000              0.000              1.377
 Translational            0.889              2.981             34.437
 Rotational               0.592              1.987              6.769
 Vibrational              5.403              0.000              0.000

 Optimization completed.
    -- Stationary point found.
 Normal termination of Gaussian 16 at Sat Oct  5 18:31:30 2024.
