 Gaussian 16, Revision C.01,
 Gaussian 16:  EM64L-G16RevC.01  3-Jul-2019

 ---------------------------
 #um062x/6-31g(d,p) OPT FREQ
 ---------------------------

 ---------------------------
 created with so and so tool
 ---------------------------
 Symbolic Z-matrix:
 Charge =  0 Multiplicity = 1

 SCF Done:  E(UM062X) =  -151.287835360     A.U. after   15 cycles
 SCF Done:  E(UM062X) =  -151.352418288     A.U. after   14 cycles
 SCF Done:  E(UM062X) =  -151.454447613     A.U. after   14 cycles
 SCF Done:  E(UM062X) =  -151.467559691     A.U. after   13 cycles
 SCF Done:  E(UM062X) =  -151.472433702     A.U. after   13 cycles
 SCF Done:  E(UM062X) =  -151.476189124     A.U. after   13 cycles
 SCF Done:  E(UM062X) =  -151.476500298     A.U. after   11 cycles
 SCF Done:  E(UM062X) =  -151.476508077     A.U. after    9 cycles
 SCF Done:  E(UM062X) =  -151.476507587     A.U. after    8 cycles
 SCF Done:  E(UM062X) =  -151.476508629     A.U. after    7 cycles
 Optimization completed.
    -- Stationary point found.
 Normal termination of Gaussian 16 at Sat Oct  5 18:30:17 2024.

 ----------------------------------------------------------------------
 #N Geom=AllCheck Guess=TCheck SCRF=Check GenChk UM062X/6-31G(d,p) Freq
 ----------------------------------------------------------------------

 Structure from the checkpoint file:  "/gpfs/home/gdb20/code/input_macros/temp/h2o2_m06-2x_6-31++Gdp/h2o2_m06-2x_6-31++Gdp.chk"
 ---------------------------
 created with so and so tool
 ---------------------------
 Charge =  0 Multiplicity = 1

                         Standard orientation:
 ---------------------------------------------------------------------
 Center     Atomic      Atomic             Coordinates (Angstroms)
 Number     Number       Type             X           Y           Z
 ---------------------------------------------------------------------
      1          8           0       -0.000002    0.718576   -0.000000
      2          8           0       -0.000002   -0.718567   -0.000000
      3          1           0        0.953860    0.871732    0.000000
      4          1           0       -0.953834   -0.871803   -0.000000
 ---------------------------------------------------------------------

 SCF Done:  E(UM062X) =  -151.476508629     A.U. after    1 cycles

 The electronic state is 1-A'.
 Alpha  occ. eigenvalues --  -19.69025 -19.69006  -1.24371  -1.00297  -0.59203
 Alpha  occ. eigenvalues --   -0.57549  -0.48709  -0.43180  -0.32611
 Alpha virt. eigenvalues --    0.10454   0.12341   0.18352   0.82256   0.82822
 Alpha virt. eigenvalues --    0.87774   0.92971   0.94470   1.03852   1.04555
 Alpha virt. eigenvalues --    1.09354   1.20854   1.35452   1.54815   1.55016

  Beta  occ. eigenvalues --  -19.69025 -19.69006  -1.24371  -1.00297  -0.59203
  Beta  occ. eigenvalues --   -0.57549  -0.48709  -0.43180  -0.32611
  Beta virt. eigenvalues --    0.10454   0.12341   0.18352   0.82256   0.82822
  Beta virt. eigenvalues --    0.87774   0.92971   0.94470   1.03852   1.04555
  Beta virt. eigenvalues --    1.09354   1.20854   1.35452   1.54815   1.55016

 Mulliken charges and spin densities:
               1          2
     1  O   -0.363480   0.000000
     2  O   -0.363489   0.000000
     3  H    0.363487   0.000000
     4  H    0.363482   0.000000
 Sum of Mulliken charges =  -0.00000   0.00000

 Dipole moment (field-independent basis, Debye):
    X=              0.0000    Y=             -0.0001    Z=              0.0000  Tot=              0.0001
 Quadrupole moment (field-independent basis, Debye-Ang):
   XX=             -7.8491   YY=            -11.1853   ZZ=            -12.5188
   XY=              3.5543   XZ=              0.0000   YZ=              0.0000

  Exact polarizability:      10.631       2.371      13.593       0.000      -0.000       4.813
 Approx polarizability:      11.665       1.735      15.783       0.000      -0.000       5.144

 ******    1 imaginary frequencies (negative Signs) ******

                      1                      2                      3
                     A"                     A'                     A'
 Frequencies --   -269.2525              1046.6766              1269.9238
 Red. masses --      1.0671                15.2904                 1.0671
 Frc consts  --      0.0456                 9.8695                 1.0139
 IR Inten    --    315.7867                 0.0000               148.1129

                      4                      5                      6
                     A'                     A'                     A'
 Frequencies --   1567.9970              3873.7585              3882.6517
 Red. masses --      1.1249                 1.0692                 1.0671
 Frc consts  --      1.6295                 9.4535                 9.4778
 IR Inten    --      0.0000                 0.0168               110.1428

 - Thermochemistry -
 -------------------
 Temperature   298.150 Kelvin.  Pressure   1.00000 Atm.
 Atom     1 has atomic number  8 and mass  15.99491

 Molecular mass:    34.00548 amu.
 Principal axes and moments of inertia in atomic units:
                           1         2         3
     Eigenvalues --     5.93675  65.06861  71.00536
           X            0.10175   0.99481   0.00000
           Y            0.99481  -0.10175   0.00000
           Z            0.00000   0.00000   1.00000
 This molecule is an asymmetric top.
 Rotational symmetry number  1.
 Rotational temperatures (Kelvin)     14.58945     1.33112     1.21982
 Rotational constants (GHZ):         303.99486    27.73597    25.41697
    1 imaginary frequencies ignored.
 Zero-point vibrational energy      69628.7 (Joules/Mol)
                                   16.64166 (Kcal/Mol)
 Vibrational temperatures:   1505.93  1827.14  2256.00  5573.47  5586.27
          (Kelvin)

 Zero-point correction=                           0.026520 (Hartree/Particle)
 Thermal correction to Energy=                    0.029400
 Thermal correction to Enthalpy=                  0.030344
 Thermal correction to Gibbs Free Energy=         0.004413
 Sum of electronic and zero-point Energies=           -151.449988
 Sum of electronic and thermal Energies=              -151.447109
 Sum of electronic and thermal Enthalpies=            -151.446165
 Sum of electronic and thermal Free Energies=         -151.472096

                     E (Thermal)             CV                S
                      KCal/Mol        Cal/Mol-Kelvin    Cal/Mol-Kelvin
 Total                   18.449              6.513             54.577
 Electronic               0.000              0.000              0.000
 Translational            0.889              2.981             36.503
 Rotational               0.889              2.981             17.957
 Vibrational             16.671              0.551              0.117

 Optimization completed.
    -- Stationary point found.
 Normal termination of Gaussian 16 at Sat Oct  5 18:30:56 2024.
