 Gaussian 16, Revision C.01,
 Gaussian 16:  EM64L-G16RevC.01  3-Jul-2019

 ---------------------------
 #um08hx/6-31g(d,p) OPT FREQ
 ---------------------------

 ---------------------------
 created with so and so tool
 ---------------------------
 Symbolic Z-matrix:
 Charge =  0 Multiplicity = 2

 SCF Done:  E(UM08HX) =  -75.6696759869     A.U. after   12 cycles
 SCF Done:  E(UM08HX) =  -75.6898731984     A.U. after   14 cycles
 SCF Done:  E(UM08HX) =  -75.6901094731     A.U. after    9 cycles
 SCF Done:  E(UM08HX) =  -75.6901099758     A.U. after    7 cycles
 Optimization completed.
    -- Stationary point found.
 Normal termination of Gaussian 16 at Sat Oct  5 18:31:22 2024.

 ----------------------------------------------------------------------
 #N Geom=AllCheck Guess=TCheck SCRF=Check GenChk UM08HX/6-31G(d,p) Freq
 ----------------------------------------------------------------------

 Structure from the checkpoint file:  "/gpfs/home/gdb20/code/input_macros/temp/oh_radical_m08-hx_6-31++Gdp/oh_radical_m08-hx_6-31++Gdp.chk"
 ---------------------------
 created with so and so tool
 ---------------------------
 Charge =  0 Multiplicity = 2

                         Standard orientation:
 ---------------------------------------------------------------------
 Center     Atomic      Atomic             Coordinates (Angstroms)
 Number     Number       Type             X           Y           Z
 ---------------------------------------------------------------------
      1          8           0        0.000000   -0.000000    0.108310
      2          1           0        0.000000    0.000000   -0.866479
 ---------------------------------------------------------------------

 SCF Done:  E(UM08HX) =  -75.6901099758     A.U. after    1 cycles

 Unable to determine electronic state:  an orbital has unidentified symmetry.
 Alpha  occ. eigenvalues --  -19.69102  -1.12383  -0.54733  -0.48215  -0.42082
 Alpha virt. eigenvalues --    0.10702   0.80131   0.88932   0.90450   0.94542
 Alpha virt. eigenvalues --    1.11645   1.57699   1.61490   1.80962   1.81542
 Alpha virt. eigenvalues --    2.36268   2.63649   2.67061   3.34706   3.51289
  Beta  occ. eigenvalues --  -19.65983  -1.05132  -0.51755  -0.39025
  Beta virt. eigenvalues --   -0.07563   0.11428   0.81042   0.91212   0.95421
  Beta virt. eigenvalues --    1.01312   1.13432   1.62033   1.62771   1.88635
  Beta virt. eigenvalues --    1.90326   2.39700   2.66482   2.66692   3.37360

 Mulliken charges and spin densities:
               1          2
     1  O   -0.346285   1.027372
     2  H    0.346285  -0.027372
 Sum of Mulliken charges =  -0.00000   1.00000

 Dipole moment (field-independent basis, Debye):
    X=              0.0000    Y=             -0.0000    Z=             -1.7857  Tot=              1.7857
 Quadrupole moment (field-independent basis, Debye-Ang):
   XX=             -5.2953   YY=             -6.4297   ZZ=             -4.4664
   XY=              0.0000   XZ=             -0.0000   YZ=              0.0000

  Exact polarizability:       2.899       0.000       2.553      -0.000      -0.000       6.143
 Approx polarizability:       2.916      -0.000       2.453      -0.000       0.000       6.501

                      1
                     SG
 Frequencies --   3792.9845
 Red. masses --      1.0671
 Frc consts  --      9.0451
 IR Inten    --      7.0928

 - Thermochemistry -
 -------------------
 Temperature   298.150 Kelvin.  Pressure   1.00000 Atm.
 Atom     1 has atomic number  8 and mass  15.99491

 Molecular mass:    17.00274 amu.
 Principal axes and moments of inertia in atomic units:
                           1         2         3
     Eigenvalues --     0.00000   3.21712   3.21712
           X           -0.00000   0.99990  -0.01440
           Y            0.00000   0.01440   0.99990
           Z            1.00000   0.00000  -0.00000
 This molecule is a prolate symmetric top.
 Rotational symmetry number  1.
 Rotational temperature (Kelvin)     26.92283
 Rotational constant (GHZ):         560.980690
 Zero-point vibrational energy      22687.1 (Joules/Mol)
                                    5.42234 (Kcal/Mol)
 Vibrational temperatures:   5457.26
          (Kelvin)

 Zero-point correction=                           0.008641 (Hartree/Particle)
 Thermal correction to Energy=                    0.011002
 Thermal correction to Enthalpy=                  0.011946
 Thermal correction to Gibbs Free Energy=        -0.008285
 Sum of electronic and zero-point Energies=            -75.681469
 Sum of electronic and thermal Energies=               -75.679108
 Sum of electronic and thermal Enthalpies=             -75.678164
 Sum of electronic and thermal Free Energies=          -75.698395

                     E (Thermal)             CV                S
                      KCal/Mol        Cal/Mol-Kelvin    Cal/Mol-Kelvin
 Total                    6.904              4.968             42.580
 Electronic               0.000              0.000              1.377
 Translational            0.889              2.981             34.437
 Rotational               0.592              1.987              6.766
 Vibrational              5.422              0.000              0.000

 Optimization completed.
    -- Stationary point found.
 Normal termination of Gaussian 16 at Sat Oct  5 18:31:30 2024.
