 Gaussian 16, Revision C.01,
 Gaussian 16:  EM64L-G16RevC.01  3-Jul-2019

 ---------------------------
 #um08hx/6-31g(d,p) OPT FREQ
 ---------------------------

 ---------------------------
 created with so and so tool
 ---------------------------
 Symbolic Z-matrix:
 Charge =  0 Multiplicity = 1

 SCF Done:  E(UM08HX) =  -151.283208554     A.U. after   15 cycles
 SCF Done:  E(UM08HX) =  -151.347140784     A.U. after   14 cycles
 SCF Done:  E(UM08HX) =  -151.448425330     A.U. after   14 cycles
 SCF Done:  E(UM08HX) =  -151.459527760     A.U. after   14 cycles
 SCF Done:  E(UM08HX) =  -151.466832243     A.U. after   13 cycles
 SCF Done:  E(UM08HX) =  -151.470679239     A.U. after   13 cycles
 SCF Done:  E(UM08HX) =  -151.471046635     A.U. after   12 cycles
 SCF Done:  E(UM08HX) =  -151.471050650     A.U. after    9 cycles
 SCF Done:  E(UM08HX) =  -151.471056031     A.U. after    8 cycles
 SCF Done:  E(UM08HX) =  -151.471057094     A.U. after    8 cycles
 Optimization completed.
    -- Stationary point found.
 Normal termination of Gaussian 16 at Sat Oct  5 18:30:16 2024.

 ----------------------------------------------------------------------
 #N Geom=AllCheck Guess=TCheck SCRF=Check GenChk UM08HX/6-31G(d,p) Freq
 ----------------------------------------------------------------------

 Structure from the checkpoint file:  "/gpfs/home/gdb20/code/input_macros/temp/h2o2_m08-hx_6-31+Gdp/h2o2_m08-hx_6-31+Gdp.chk"
 ---------------------------
 created with so and so tool
 ---------------------------
 Charge =  0 Multiplicity = 1

                         Standard orientation:
 ---------------------------------------------------------------------
 Center     Atomic      Atomic             Coordinates (Angstroms)
 Number     Number       Type             X           Y           Z
 ---------------------------------------------------------------------
      1          8           0       -0.000001    0.719129   -0.000000
      2          8           0       -0.000001   -0.719119    0.000000
      3          1           0        0.952523    0.872610   -0.000000
      4          1           0       -0.952502   -0.872691    0.000000
 ---------------------------------------------------------------------

 SCF Done:  E(UM08HX) =  -151.471057094     A.U. after    1 cycles

 The electronic state is 1-A'.
 Alpha  occ. eigenvalues --  -19.67768 -19.67749  -1.24324  -1.00406  -0.59400
 Alpha  occ. eigenvalues --   -0.57832  -0.49005  -0.43415  -0.32998
 Alpha virt. eigenvalues --    0.09354   0.10348   0.16640   0.80657   0.81668
 Alpha virt. eigenvalues --    0.87619   0.92713   0.94201   1.03341   1.03546
 Alpha virt. eigenvalues --    1.08195   1.20363   1.35027   1.55040   1.55096

  Beta  occ. eigenvalues --  -19.67768 -19.67749  -1.24324  -1.00406  -0.59400
  Beta  occ. eigenvalues --   -0.57832  -0.49005  -0.43415  -0.32998
  Beta virt. eigenvalues --    0.09354   0.10348   0.16640   0.80657   0.81668
  Beta virt. eigenvalues --    0.87619   0.92713   0.94201   1.03341   1.03546
  Beta virt. eigenvalues --    1.08195   1.20363   1.35027   1.55040   1.55096

 Mulliken charges and spin densities:
               1          2
     1  O   -0.367833   0.000000
     2  O   -0.367845   0.000000
     3  H    0.367840   0.000000
     4  H    0.367837   0.000000
 Sum of Mulliken charges =   0.00000   0.00000

 Dipole moment (field-independent basis, Debye):
    X=              0.0000    Y=             -0.0001    Z=              0.0000  Tot=              0.0001
 Quadrupole moment (field-independent basis, Debye-Ang):
   XX=             -7.8919   YY=            -11.2191   ZZ=            -12.5423
   XY=              3.5592   XZ=             -0.0000   YZ=             -0.0000

  Exact polarizability:      10.544       2.285      13.576       0.000       0.000       4.818
 Approx polarizability:      11.790       1.776      15.816      -0.000      -0.000       5.129

 ******    1 imaginary frequencies (negative Signs) ******

                      1                      2                      3
                     A"                     A'                     A'
 Frequencies --   -270.4321              1030.0089              1272.0531
 Red. masses --      1.0671                15.3233                 1.0671
 Frc consts  --      0.0460                 9.5782                 1.0173
 IR Inten    --    315.8998                 0.0000               147.8952

                      4                      5                      6
                     A'                     A'                     A'
 Frequencies --   1572.9362              3889.3020              3898.5237
 Red. masses --      1.1245                 1.0691                 1.0671
 Frc consts  --      1.6392                 9.5285                 9.5555
 IR Inten    --      0.0000                 0.0059               101.9836

 - Thermochemistry -
 -------------------
 Temperature   298.150 Kelvin.  Pressure   1.00000 Atm.
 Atom     1 has atomic number  8 and mass  15.99491

 Molecular mass:    34.00548 amu.
 Principal axes and moments of inertia in atomic units:
                           1         2         3
     Eigenvalues --     5.92014  65.16878  71.08893
           X            0.10151   0.99483   0.00000
           Y            0.99483  -0.10151   0.00000
           Z           -0.00000  -0.00000   1.00000
 This molecule is an asymmetric top.
 Rotational symmetry number  1.
 Rotational temperatures (Kelvin)     14.63038     1.32907     1.21839
 Rotational constants (GHZ):         304.84761    27.69334    25.38709
    1 imaginary frequencies ignored.
 Zero-point vibrational energy      69759.2 (Joules/Mol)
                                   16.67284 (Kcal/Mol)
 Vibrational temperatures:   1481.95  1830.20  2263.10  5595.84  5609.11
          (Kelvin)

 Zero-point correction=                           0.026570 (Hartree/Particle)
 Thermal correction to Energy=                    0.029451
 Thermal correction to Enthalpy=                  0.030396
 Thermal correction to Gibbs Free Energy=         0.004462
 Sum of electronic and zero-point Energies=           -151.444487
 Sum of electronic and thermal Energies=              -151.441606
 Sum of electronic and thermal Enthalpies=            -151.440662
 Sum of electronic and thermal Free Energies=         -151.466595

                     E (Thermal)             CV                S
                      KCal/Mol        Cal/Mol-Kelvin    Cal/Mol-Kelvin
 Total                   18.481              6.527             54.582
 Electronic               0.000              0.000              0.000
 Translational            0.889              2.981             36.503
 Rotational               0.889              2.981             17.957
 Vibrational             16.704              0.566              0.122

 Optimization completed.
    -- Stationary point found.
 Normal termination of Gaussian 16 at Sat Oct  5 18:30:54 2024.
