 Gaussian 16, Revision C.01,
 Gaussian 16:  EM64L-G16RevC.01  3-Jul-2019

 ---------------------------
 #ub3lyp/6-31g(d,p) OPT FREQ
 ---------------------------

 ---------------------------
 created with so and so tool
 ---------------------------
 Symbolic Z-matrix:
 Charge =  0 Multiplicity = 1

 SCF Done:  E(UB3LYP) =  -151.370453189     A.U. after   13 cycles
 SCF Done:  E(UB3LYP) =  -151.429806657     A.U. after   12 cycles
 SCF Done:  E(UB3LYP) =  -151.522654132     A.U. after   12 cycles
 SCF Done:  E(UB3LYP) =  -151.532809108     A.U. after   12 cycles
 SCF Done:  E(UB3LYP) =  -151.538928826     A.U. after   11 cycles
 SCF Done:  E(UB3LYP) =  -151.541833361     A.U. after   11 cycles
 SCF Done:  E(UB3LYP) =  -151.542104129     A.U. after   10 cycles
 SCF Done:  E(UB3LYP) =  -151.542105823     A.U. after    8 cycles
 SCF Done:  E(UB3LYP) =  -151.542111155     A.U. after    7 cycles
 SCF Done:  E(UB3LYP) =  -151.542111473     A.U. after    7 cycles
 Optimization completed.
    -- Stationary point found.
 Normal termination of Gaussian 16 at Sat Oct  5 18:29:25 2024.

 ----------------------------------------------------------------------
 #N Geom=AllCheck Guess=TCheck SCRF=Check GenChk UB3LYP/6-31G(d,p) Freq
 ----------------------------------------------------------------------

 Structure from the checkpoint file:  "/gpfs/home/gdb20/code/input_macros/temp/h2o2_b3lyp_6-31++Gdp/h2o2_b3lyp_6-31++Gdp.chk"
 ---------------------------
 created with so and so tool
 ---------------------------
 Charge =  0 Multiplicity = 1

                         Standard orientation:
 ---------------------------------------------------------------------
 Center     Atomic      Atomic             Coordinates (Angstroms)
 Number     Number       Type             X           Y           Z
 ---------------------------------------------------------------------
      1          8           0       -0.000001    0.733256    0.000000
      2          8           0       -0.000001   -0.733248   -0.000000
      3          1           0        0.959437    0.872286    0.000000
      4          1           0       -0.959426   -0.872348   -0.000000
 ---------------------------------------------------------------------

 SCF Done:  E(UB3LYP) =  -151.542111473     A.U. after    1 cycles

 The electronic state is 1-A'.
 Alpha  occ. eigenvalues --  -19.20096 -19.20089  -1.10531  -0.89482  -0.50286
 Alpha  occ. eigenvalues --   -0.50122  -0.38961  -0.36029  -0.24693
 Alpha virt. eigenvalues --    0.02094   0.07106   0.12093   0.75013   0.75273
 Alpha virt. eigenvalues --    0.80657   0.84705   0.88638   0.96027   0.97403
 Alpha virt. eigenvalues --    1.02129   1.15176   1.29947   1.49652   1.49743

  Beta  occ. eigenvalues --  -19.20096 -19.20089  -1.10531  -0.89482  -0.50286
  Beta  occ. eigenvalues --   -0.50122  -0.38961  -0.36029  -0.24693
  Beta virt. eigenvalues --    0.02094   0.07106   0.12093   0.75013   0.75273
  Beta virt. eigenvalues --    0.80657   0.84705   0.88638   0.96027   0.97403
  Beta virt. eigenvalues --    1.02129   1.15176   1.29947   1.49652   1.49743

 Mulliken charges and spin densities:
               1          2
     1  O   -0.343422   0.000000
     2  O   -0.343431   0.000000
     3  H    0.343427   0.000000
     4  H    0.343425  -0.000000
 Sum of Mulliken charges =  -0.00000   0.00000

 Dipole moment (field-independent basis, Debye):
    X=              0.0000    Y=             -0.0001    Z=              0.0000  Tot=              0.0001
 Quadrupole moment (field-independent basis, Debye-Ang):
   XX=             -7.9162   YY=            -11.1379   ZZ=            -12.4946
   XY=              3.4495   XZ=              0.0000   YZ=              0.0000

  Exact polarizability:      11.078       2.464      14.008       0.000       0.000       4.756
 Approx polarizability:      14.385       2.096      21.348       0.000       0.000       5.618

 ******    1 imaginary frequencies (negative Signs) ******

                      1                      2                      3
                     A"                     A'                     A'
 Frequencies --   -256.3146               959.0065              1243.2899
 Red. masses --      1.0671                15.2446                 1.0671
 Frc consts  --      0.0413                 8.2606                 0.9718
 IR Inten    --    296.1342                 0.0000               140.0048

                      4                      5                      6
                     A'                     A'                     A'
 Frequencies --   1540.0303              3792.5451              3801.7830
 Red. masses --      1.1194                 1.0695                 1.0671
 Frc consts  --      1.5641                 9.0638                 9.0871
 IR Inten    --      0.0000                 0.0002                67.9340

 - Thermochemistry -
 -------------------
 Temperature   298.150 Kelvin.  Pressure   1.00000 Atm.
 Atom     1 has atomic number  8 and mass  15.99491

 Molecular mass:    34.00548 amu.
 Principal axes and moments of inertia in atomic units:
                           1         2         3
     Eigenvalues --     6.02962  67.49436  73.52398
           X            0.09849   0.99514   0.00000
           Y            0.99514  -0.09849   0.00000
           Z           -0.00000  -0.00000   1.00000
 This molecule is an asymmetric top.
 Rotational symmetry number  1.
 Rotational temperatures (Kelvin)     14.36475     1.28328     1.17804
 Rotational constants (GHZ):         299.31282    26.73914    24.54629
    1 imaginary frequencies ignored.
 Zero-point vibrational energy      67808.3 (Joules/Mol)
                                   16.20656 (Kcal/Mol)
 Vibrational temperatures:   1379.80  1788.82  2215.76  5456.63  5469.92
          (Kelvin)

 Zero-point correction=                           0.025827 (Hartree/Particle)
 Thermal correction to Energy=                    0.028721
 Thermal correction to Enthalpy=                  0.029665
 Thermal correction to Gibbs Free Energy=         0.003675
 Sum of electronic and zero-point Energies=           -151.516285
 Sum of electronic and thermal Energies=              -151.513391
 Sum of electronic and thermal Enthalpies=            -151.512447
 Sum of electronic and thermal Free Energies=         -151.538437

                     E (Thermal)             CV                S
                      KCal/Mol        Cal/Mol-Kelvin    Cal/Mol-Kelvin
 Total                   18.023              6.629             54.701
 Electronic               0.000              0.000              0.000
 Translational            0.889              2.981             36.503
 Rotational               0.889              2.981             18.043
 Vibrational             16.245              0.668              0.155

 Optimization completed.
    -- Stationary point found.
 Normal termination of Gaussian 16 at Sat Oct  5 18:29:48 2024.
