 Gaussian 16, Revision C.01,
 Gaussian 16:  EM64L-G16RevC.01  3-Jul-2019

 ---------------------------
 #ub3lyp/6-31g(d,p) OPT FREQ
 ---------------------------

 ---------------------------
 created with so and so tool
 ---------------------------
 Symbolic Z-matrix:
 Charge =  0 Multiplicity = 2

 SCF Done:  E(UB3LYP) =  -75.7071513276     A.U. after   11 cycles
 SCF Done:  E(UB3LYP) =  -75.7281406001     A.U. after   12 cycles
 SCF Done:  E(UB3LYP) =  -75.7284805079     A.U. after    8 cycles
 SCF Done:  E(UB3LYP) =  -75.7284813218     A.U. after    7 cycles
 Optimization completed.
    -- Stationary point found.
 Normal termination of Gaussian 16 at Sat Oct  5 18:30:18 2024.

 ----------------------------------------------------------------------
 #N Geom=AllCheck Guess=TCheck SCRF=Check GenChk UB3LYP/6-31G(d,p) Freq
 ----------------------------------------------------------------------

 Structure from the checkpoint file:  "/gpfs/home/gdb20/code/input_macros/temp/oh_radical_b3lyp_6-31++Gdp/oh_radical_b3lyp_6-31++Gdp.chk"
 ---------------------------
 created with so and so tool
 ---------------------------
 Charge =  0 Multiplicity = 2

                         Standard orientation:
 ---------------------------------------------------------------------
 Center     Atomic      Atomic             Coordinates (Angstroms)
 Number     Number       Type             X           Y           Z
 ---------------------------------------------------------------------
      1          8           0       -0.000000    0.000000    0.108854
      2          1           0        0.000000   -0.000000   -0.870833
 ---------------------------------------------------------------------

 SCF Done:  E(UB3LYP) =  -75.7284813218     A.U. after    1 cycles

 Unable to determine electronic state:  partially filled degenerate orbitals.
 Alpha  occ. eigenvalues --  -19.21383  -1.00679  -0.46557  -0.40380  -0.32921
 Alpha virt. eigenvalues --    0.07181   0.73535   0.81650   0.83833   0.86480
 Alpha virt. eigenvalues --    1.06660   1.52081   1.55696   1.75246   1.75251
 Alpha virt. eigenvalues --    2.30175   2.58802   2.61378   3.29508   3.47211
  Beta  occ. eigenvalues --  -19.18921  -0.93615  -0.43938  -0.30240
  Beta virt. eigenvalues --   -0.15413   0.08066   0.74377   0.85636   0.88076
  Beta virt. eigenvalues --    0.91604   1.08817   1.56135   1.56637   1.81566
  Beta virt. eigenvalues --    1.82332   2.32258   2.61424   2.61453   3.32224

 Mulliken charges and spin densities:
               1          2
     1  O   -0.324415   1.028709
     2  H    0.324415  -0.028709
 Sum of Mulliken charges =  -0.00000   1.00000

 Dipole moment (field-independent basis, Debye):
    X=              0.0000    Y=             -0.0000    Z=             -1.7340  Tot=              1.7340
 Quadrupole moment (field-independent basis, Debye-Ang):
   XX=             -5.2742   YY=             -6.4000   ZZ=             -4.4741
   XY=              0.0000   XZ=             -0.0000   YZ=              0.0000

  Exact polarizability:       2.860       0.000       2.519       0.000       0.000       6.383
 Approx polarizability:       3.372      -0.000       2.700      -0.000       0.000       7.972

                      1
                     SG
 Frequencies --   3694.3975
 Red. masses --      1.0671
 Frc consts  --      8.5810
 IR Inten    --      2.2998

 - Thermochemistry -
 -------------------
 Temperature   298.150 Kelvin.  Pressure   1.00000 Atm.
 Atom     1 has atomic number  8 and mass  15.99491

 Molecular mass:    17.00274 amu.
 Principal axes and moments of inertia in atomic units:
                           1         2         3
     Eigenvalues --     0.00000   3.24953   3.24953
           X           -0.00000   0.99983  -0.01868
           Y            0.00000   0.01868   0.99983
           Z            1.00000   0.00000  -0.00000
 This molecule is a prolate symmetric top.
 Rotational symmetry number  1.
 Rotational temperature (Kelvin)     26.65430
 Rotational constant (GHZ):         555.385553
 Zero-point vibrational energy      22097.4 (Joules/Mol)
                                    5.28141 (Kcal/Mol)
 Vibrational temperatures:   5315.41
          (Kelvin)

 Zero-point correction=                           0.008416 (Hartree/Particle)
 Thermal correction to Energy=                    0.010777
 Thermal correction to Enthalpy=                  0.011721
 Thermal correction to Gibbs Free Energy=        -0.008519
 Sum of electronic and zero-point Energies=            -75.720065
 Sum of electronic and thermal Energies=               -75.717704
 Sum of electronic and thermal Enthalpies=             -75.716760
 Sum of electronic and thermal Free Energies=          -75.737001

                     E (Thermal)             CV                S
                      KCal/Mol        Cal/Mol-Kelvin    Cal/Mol-Kelvin
 Total                    6.763              4.968             42.600
 Electronic               0.000              0.000              1.377
 Translational            0.889              2.981             34.437
 Rotational               0.592              1.987              6.786
 Vibrational              5.281              0.000              0.000

 Optimization completed.
    -- Stationary point found.
 Normal termination of Gaussian 16 at Sat Oct  5 18:30:24 2024.
